<UPF version="2.0.1">
  <PP_INFO>

 This pseudopotential file has been produced using the code
 ONCVPSP  (Optimized Norm-Conservinng Vanderbilt PSeudopotential)
 scalar-relativistic version 1.1.1, 08/28/2013 by D. R. Hamann
 The code is available through a link at URL www.mat-simresearch.com.
 Documentation with the package provides a full discription of the
 input data below.


 While it is not required under the terms of the GNU GPL, it is
 suggested that you cite D. R. Hamann, Phys. Rev. B 88, 085117 (2013)
 in any publication using these pseudopotentials.

    <PP_INPUTFILE>
# ATOM AND REFERENCE CONFIGURATION
# atsym  z    nc    nv    iexc   psfile
  Si 14.00     3     3     3      upf
#
#   n    l    f        energy (Ha)
    1    0    2.00
    2    0    2.00
    2    1    6.00
    3    0    2.00
    3    1    1.60
    3    2    0.40
#
# PSEUDOPOTENTIAL AND OPTIMIZATION
# lmax
    2
#
#   l,   rc,     ep,   ncon, nbas, qcut
    0    2.04   -0.48    4    7    5.00
    1    2.04   -0.23    4    7    5.00
    2    2.04   -0.01    4    7    5.00
#
# LOCAL POTENTIAL
# lloc, lpopt,  rc(5),   dvloc0
    4    5      2.04       0.00
#
# VANDERBILT-KLEINMAN-BYLANDER PROJECTORs
# l, nproj, debl
    0    2    1.0000
    1    2    0.7500
    2    2    0.7500
#
# MODEL CORE CHARGE
# icmod, fcfact
    0    0.00
#
# LOG DERIVATIVE ANALYSIS
# epsh1, epsh2, depsh
   -2.00    2.00    0.02
#
# OUTPUT GRID
# rlmax, drl
    5.00    0.01
#
# TEST CONFIGURATIONS
# ncnf
    3
# nvcnf
#   n    l    f
    2
    3    0    1.00
    3    1    2.00
#
    2
    3    0    2.00
    3    1    1.00
#
    2
    3    0    1.00
    3    1    1.00
#
    </PP_INPUTFILE>
  </PP_INFO>
  <!--                               -->
  <!-- END OF HUMAN READABLE SECTION -->
  <!--                               -->
    <PP_HEADER
       generated="Generated using ONCVPSP code by D. R. Hamann"
       author="anonymous"
       date="141105"
       comment=""
       element="Si"
       pseudo_type="NC"
       relativistic="scalar"
       is_ultrasoft="F"
       is_paw="F"
       is_coulomb="F"
       has_so="F"
       has_wfc="F"
       has_gipaw="F"
       core_correction="F"
       functional="LDA"
       z_valence="    4.00"
       total_psenergy="  -3.67733710737E+00"
       rho_cutoff="   1.17798301368E+02"
       l_max="2"
       l_local="-1"
       mesh_size="  1144"
       number_of_wfc="0"
       number_of_proj="6"/>
 <PP_MESH>
   <PP_R type="real"  size="1144" columns="8">
 0.414913267E-04 0.420342352E-04 0.425842476E-04 0.431414568E-04 0.437059570E-04 0.442778437E-04 0.448572134E-04 0.454441641E-04
 0.460387949E-04 0.466412065E-04 0.472515005E-04 0.478697801E-04 0.484961498E-04 0.491307155E-04 0.497735844E-04 0.504248651E-04
 0.510846678E-04 0.517531039E-04 0.524302864E-04 0.531163298E-04 0.538113499E-04 0.545154643E-04 0.552287919E-04 0.559514533E-04
 0.566835706E-04 0.574252677E-04 0.581766697E-04 0.589379037E-04 0.597090983E-04 0.604903840E-04 0.612818926E-04 0.620837580E-04
 0.628961158E-04 0.637191031E-04 0.645528591E-04 0.653975247E-04 0.662532427E-04 0.671201576E-04 0.679984159E-04 0.688881662E-04
 0.697895587E-04 0.707027458E-04 0.716278818E-04 0.725651232E-04 0.735146282E-04 0.744765574E-04 0.754510732E-04 0.764383405E-04
 0.774385261E-04 0.784517989E-04 0.794783303E-04 0.805182937E-04 0.815718649E-04 0.826392219E-04 0.837205452E-04 0.848160174E-04
 0.859258237E-04 0.870501517E-04 0.881891914E-04 0.893431353E-04 0.905121784E-04 0.916965182E-04 0.928963550E-04 0.941118915E-04
 0.953433331E-04 0.965908880E-04 0.978547669E-04 0.991351836E-04 0.100432354E-03 0.101746498E-03 0.103077838E-03 0.104426598E-03
 0.105793006E-03 0.107177293E-03 0.108579694E-03 0.110000445E-03 0.111439786E-03 0.112897961E-03 0.114375216E-03 0.115871800E-03
 0.117387967E-03 0.118923973E-03 0.120480078E-03 0.122056544E-03 0.123653637E-03 0.125271629E-03 0.126910791E-03 0.128571402E-03
 0.130253742E-03 0.131958095E-03 0.133684749E-03 0.135433996E-03 0.137206132E-03 0.139001456E-03 0.140820272E-03 0.142662886E-03
 0.144529611E-03 0.146420762E-03 0.148336658E-03 0.150277624E-03 0.152243987E-03 0.154236079E-03 0.156254238E-03 0.158298804E-03
 0.160370123E-03 0.162468544E-03 0.164594424E-03 0.166748120E-03 0.168929997E-03 0.171140423E-03 0.173379773E-03 0.175648425E-03
 0.177946761E-03 0.180275171E-03 0.182634047E-03 0.185023790E-03 0.187444801E-03 0.189897492E-03 0.192382275E-03 0.194899572E-03
 0.197449807E-03 0.200033411E-03 0.202650822E-03 0.205302481E-03 0.207988837E-03 0.210710343E-03 0.213467460E-03 0.216260654E-03
 0.219090395E-03 0.221957164E-03 0.224861444E-03 0.227803726E-03 0.230784508E-03 0.233804293E-03 0.236863591E-03 0.239962920E-03
 0.243102803E-03 0.246283770E-03 0.249506361E-03 0.252771119E-03 0.256078595E-03 0.259429350E-03 0.262823948E-03 0.266262965E-03
 0.269746980E-03 0.273276584E-03 0.276852372E-03 0.280474948E-03 0.284144926E-03 0.287862924E-03 0.291629572E-03 0.295445507E-03
 0.299311372E-03 0.303227822E-03 0.307195517E-03 0.311215130E-03 0.315287339E-03 0.319412832E-03 0.323592306E-03 0.327826469E-03
 0.332116035E-03 0.336461729E-03 0.340864286E-03 0.345324450E-03 0.349842974E-03 0.354420623E-03 0.359058170E-03 0.363756399E-03
 0.368516103E-03 0.373338087E-03 0.378223167E-03 0.383172167E-03 0.388185924E-03 0.393265285E-03 0.398411109E-03 0.403624266E-03
 0.408905636E-03 0.414256112E-03 0.419676598E-03 0.425168010E-03 0.430731277E-03 0.436367339E-03 0.442077148E-03 0.447861669E-03
 0.453721879E-03 0.459658770E-03 0.465673344E-03 0.471766618E-03 0.477939621E-03 0.484193398E-03 0.490529004E-03 0.496947511E-03
 0.503450004E-03 0.510037580E-03 0.516711354E-03 0.523472454E-03 0.530322021E-03 0.537261215E-03 0.544291206E-03 0.551413185E-03
 0.558628353E-03 0.565937931E-03 0.573343154E-03 0.580845273E-03 0.588445556E-03 0.596145288E-03 0.603945770E-03 0.611848320E-03
 0.619854275E-03 0.627964986E-03 0.636181824E-03 0.644506179E-03 0.652939457E-03 0.661483083E-03 0.670138501E-03 0.678907175E-03
 0.687790585E-03 0.696790234E-03 0.705907641E-03 0.715144349E-03 0.724501918E-03 0.733981930E-03 0.743585986E-03 0.753315710E-03
 0.763172746E-03 0.773158760E-03 0.783275440E-03 0.793524495E-03 0.803907658E-03 0.814426683E-03 0.825083348E-03 0.835879454E-03
 0.846816826E-03 0.857897312E-03 0.869122785E-03 0.880495141E-03 0.892016303E-03 0.903688218E-03 0.915512859E-03 0.927492223E-03
 0.939628336E-03 0.951923248E-03 0.964379037E-03 0.976997809E-03 0.989781696E-03 0.100273286E-02 0.101585348E-02 0.102914579E-02
 0.104261203E-02 0.105625447E-02 0.107007542E-02 0.108407721E-02 0.109826222E-02 0.111263284E-02 0.112719149E-02 0.114194064E-02
 0.115688278E-02 0.117202044E-02 0.118735617E-02 0.120289257E-02 0.121863226E-02 0.123457790E-02 0.125073219E-02 0.126709785E-02
 0.128367766E-02 0.130047441E-02 0.131749095E-02 0.133473014E-02 0.135219491E-02 0.136988820E-02 0.138781301E-02 0.140597235E-02
 0.142436932E-02 0.144300700E-02 0.146188855E-02 0.148101717E-02 0.150039609E-02 0.152002857E-02 0.153991794E-02 0.156006756E-02
 0.158048084E-02 0.160116122E-02 0.162211221E-02 0.164333733E-02 0.166484018E-02 0.168662439E-02 0.170869365E-02 0.173105168E-02
 0.175370226E-02 0.177664922E-02 0.179989644E-02 0.182344785E-02 0.184730742E-02 0.187147919E-02 0.189596725E-02 0.192077573E-02
 0.194590883E-02 0.197137078E-02 0.199716591E-02 0.202329856E-02 0.204977315E-02 0.207659416E-02 0.210376612E-02 0.213129362E-02
 0.215918132E-02 0.218743392E-02 0.221605620E-02 0.224505300E-02 0.227442922E-02 0.230418983E-02 0.233433985E-02 0.236488437E-02
 0.239582857E-02 0.242717767E-02 0.245893697E-02 0.249111183E-02 0.252370770E-02 0.255673008E-02 0.259018456E-02 0.262407678E-02
 0.265841247E-02 0.269319745E-02 0.272843758E-02 0.276413882E-02 0.280030721E-02 0.283694886E-02 0.287406996E-02 0.291167679E-02
 0.294977569E-02 0.298837311E-02 0.302747558E-02 0.306708970E-02 0.310722216E-02 0.314787975E-02 0.318906934E-02 0.323079789E-02
 0.327307245E-02 0.331590017E-02 0.335928828E-02 0.340324412E-02 0.344777512E-02 0.349288880E-02 0.353859279E-02 0.358489480E-02
 0.363180268E-02 0.367932433E-02 0.372746781E-02 0.377624123E-02 0.382565284E-02 0.387571100E-02 0.392642417E-02 0.397780091E-02
 0.402984990E-02 0.408257995E-02 0.413599997E-02 0.419011898E-02 0.424494613E-02 0.430049069E-02 0.435676204E-02 0.441376970E-02
 0.447152329E-02 0.453003258E-02 0.458930745E-02 0.464935793E-02 0.471019416E-02 0.477182643E-02 0.483426514E-02 0.489752086E-02
 0.496160427E-02 0.502652621E-02 0.509229763E-02 0.515892967E-02 0.522643358E-02 0.529482077E-02 0.536410280E-02 0.543429138E-02
 0.550539836E-02 0.557743577E-02 0.565041577E-02 0.572435071E-02 0.579925308E-02 0.587513554E-02 0.595201091E-02 0.602989218E-02
 0.610879252E-02 0.618872526E-02 0.626970391E-02 0.635174216E-02 0.643485386E-02 0.651905307E-02 0.660435401E-02 0.669077111E-02
 0.677831896E-02 0.686701237E-02 0.695686631E-02 0.704789599E-02 0.714011677E-02 0.723354425E-02 0.732819422E-02 0.742408267E-02
 0.752122580E-02 0.761964005E-02 0.771934202E-02 0.782034859E-02 0.792267682E-02 0.802634399E-02 0.813136764E-02 0.823776550E-02
 0.834555557E-02 0.845475606E-02 0.856538542E-02 0.867746235E-02 0.879100580E-02 0.890603494E-02 0.902256923E-02 0.914062835E-02
 0.926023226E-02 0.938140117E-02 0.950415556E-02 0.962851618E-02 0.975450403E-02 0.988214042E-02 0.100114469E-01 0.101424454E-01
 0.102751579E-01 0.104096070E-01 0.105458153E-01 0.106838059E-01 0.108236021E-01 0.109652275E-01 0.111087061E-01 0.112540620E-01
 0.114013199E-01 0.115505047E-01 0.117016415E-01 0.118547559E-01 0.120098738E-01 0.121670214E-01 0.123262253E-01 0.124875123E-01
 0.126509098E-01 0.128164452E-01 0.129841467E-01 0.131540426E-01 0.133261615E-01 0.135005325E-01 0.136771852E-01 0.138561493E-01
 0.140374552E-01 0.142211335E-01 0.144072151E-01 0.145957316E-01 0.147867148E-01 0.149801970E-01 0.151762109E-01 0.153747896E-01
 0.155759667E-01 0.157797762E-01 0.159862524E-01 0.161954304E-01 0.164073455E-01 0.166220334E-01 0.168395305E-01 0.170598736E-01
 0.172830997E-01 0.175092468E-01 0.177383530E-01 0.179704570E-01 0.182055980E-01 0.184438159E-01 0.186851507E-01 0.189296435E-01
 0.191773353E-01 0.194282682E-01 0.196824845E-01 0.199400272E-01 0.202009398E-01 0.204652665E-01 0.207330518E-01 0.210043410E-01
 0.212791800E-01 0.215576153E-01 0.218396938E-01 0.221254633E-01 0.224149720E-01 0.227082690E-01 0.230054037E-01 0.233064263E-01
 0.236113878E-01 0.239203397E-01 0.242333342E-01 0.245504241E-01 0.248716632E-01 0.251971056E-01 0.255268064E-01 0.258608213E-01
 0.261992067E-01 0.265420198E-01 0.268893186E-01 0.272411618E-01 0.275976088E-01 0.279587198E-01 0.283245560E-01 0.286951790E-01
 0.290706516E-01 0.294510373E-01 0.298364002E-01 0.302268055E-01 0.306223193E-01 0.310230082E-01 0.314289402E-01 0.318401837E-01
 0.322568083E-01 0.326788843E-01 0.331064832E-01 0.335396771E-01 0.339785394E-01 0.344231441E-01 0.348735663E-01 0.353298823E-01
 0.357921691E-01 0.362605049E-01 0.367349688E-01 0.372156410E-01 0.377026027E-01 0.381959363E-01 0.386957251E-01 0.392020535E-01
 0.397150072E-01 0.402346728E-01 0.407611381E-01 0.412944922E-01 0.418348252E-01 0.423822283E-01 0.429367941E-01 0.434986164E-01
 0.440677900E-01 0.446444112E-01 0.452285774E-01 0.458203873E-01 0.464199410E-01 0.470273398E-01 0.476426863E-01 0.482660845E-01
 0.488976398E-01 0.495374590E-01 0.501856501E-01 0.508423226E-01 0.515075877E-01 0.521815576E-01 0.528643464E-01 0.535560694E-01
 0.542568434E-01 0.549667870E-01 0.556860201E-01 0.564146643E-01 0.571528427E-01 0.579006801E-01 0.586583028E-01 0.594258389E-01
 0.602034181E-01 0.609911719E-01 0.617892333E-01 0.625977372E-01 0.634168203E-01 0.642466210E-01 0.650872795E-01 0.659389379E-01
 0.668017402E-01 0.676758321E-01 0.685613614E-01 0.694584777E-01 0.703673326E-01 0.712880799E-01 0.722208749E-01 0.731658755E-01
 0.741232413E-01 0.750931340E-01 0.760757177E-01 0.770711584E-01 0.780796243E-01 0.791012858E-01 0.801363157E-01 0.811848887E-01
 0.822471822E-01 0.833233757E-01 0.844136510E-01 0.855181924E-01 0.866371867E-01 0.877708227E-01 0.889192923E-01 0.900827895E-01
 0.912615108E-01 0.924556556E-01 0.936654256E-01 0.948910252E-01 0.961326617E-01 0.973905448E-01 0.986648872E-01 0.999559042E-01
 0.101263814E+00 0.102588837E+00 0.103931199E+00 0.105291125E+00 0.106668845E+00 0.108064593E+00 0.109478604E+00 0.110911117E+00
 0.112362374E+00 0.113832621E+00 0.115322105E+00 0.116831080E+00 0.118359799E+00 0.119908521E+00 0.121477509E+00 0.123067026E+00
 0.124677341E+00 0.126308728E+00 0.127961461E+00 0.129635819E+00 0.131332087E+00 0.133050550E+00 0.134791499E+00 0.136555228E+00
 0.138342035E+00 0.140152222E+00 0.141986095E+00 0.143843964E+00 0.145726143E+00 0.147632951E+00 0.149564708E+00 0.151521743E+00
 0.153504385E+00 0.155512969E+00 0.157547836E+00 0.159609328E+00 0.161697795E+00 0.163813589E+00 0.165957068E+00 0.168128595E+00
 0.170328535E+00 0.172557261E+00 0.174815150E+00 0.177102583E+00 0.179419947E+00 0.181767633E+00 0.184146039E+00 0.186555565E+00
 0.188996620E+00 0.191469616E+00 0.193974970E+00 0.196513107E+00 0.199084455E+00 0.201689448E+00 0.204328528E+00 0.207002140E+00
 0.209710735E+00 0.212454773E+00 0.215234715E+00 0.218051033E+00 0.220904202E+00 0.223794704E+00 0.226723028E+00 0.229689669E+00
 0.232695127E+00 0.235739912E+00 0.238824538E+00 0.241949525E+00 0.245115403E+00 0.248322705E+00 0.251571975E+00 0.254863761E+00
 0.258198619E+00 0.261577114E+00 0.264999816E+00 0.268467303E+00 0.271980162E+00 0.275538987E+00 0.279144378E+00 0.282796945E+00
 0.286497305E+00 0.290246085E+00 0.294043916E+00 0.297891442E+00 0.301789312E+00 0.305738185E+00 0.309738728E+00 0.313791619E+00
 0.317897540E+00 0.322057187E+00 0.326271263E+00 0.330540479E+00 0.334865558E+00 0.339247229E+00 0.343686234E+00 0.348183323E+00
 0.352739255E+00 0.357354802E+00 0.362030742E+00 0.366767866E+00 0.371566975E+00 0.376428880E+00 0.381354402E+00 0.386344373E+00
 0.391399638E+00 0.396521051E+00 0.401709476E+00 0.406965791E+00 0.412290884E+00 0.417685656E+00 0.423151017E+00 0.428687892E+00
 0.434297217E+00 0.439979938E+00 0.445737017E+00 0.451569427E+00 0.457478153E+00 0.463464194E+00 0.469528561E+00 0.475672280E+00
 0.481896389E+00 0.488201939E+00 0.494589997E+00 0.501061642E+00 0.507617967E+00 0.514260080E+00 0.520989105E+00 0.527806179E+00
 0.534712453E+00 0.541709094E+00 0.548797286E+00 0.555978225E+00 0.563253127E+00 0.570623219E+00 0.578089748E+00 0.585653976E+00
 0.593317181E+00 0.601080657E+00 0.608945718E+00 0.616913692E+00 0.624985926E+00 0.633163784E+00 0.641448648E+00 0.649841918E+00
 0.658345013E+00 0.666959371E+00 0.675686446E+00 0.684527713E+00 0.693484667E+00 0.702558822E+00 0.711751711E+00 0.721064888E+00
 0.730499926E+00 0.740058421E+00 0.749741987E+00 0.759552262E+00 0.769490902E+00 0.779559589E+00 0.789760023E+00 0.800093928E+00
 0.810563051E+00 0.821169161E+00 0.831914050E+00 0.842799535E+00 0.853827455E+00 0.864999674E+00 0.876318080E+00 0.887784586E+00
 0.899401130E+00 0.911169674E+00 0.923092209E+00 0.935170748E+00 0.947407333E+00 0.959804032E+00 0.972362941E+00 0.985086181E+00
 0.997975903E+00 0.101103429E+01 0.102426353E+01 0.103766589E+01 0.105124361E+01 0.106499899E+01 0.107893436E+01 0.109305207E+01
 0.110735452E+01 0.112184410E+01 0.113652328E+01 0.115139454E+01 0.116646039E+01 0.118172336E+01 0.119718606E+01 0.121285108E+01
 0.122872107E+01 0.124479873E+01 0.126108675E+01 0.127758791E+01 0.129430497E+01 0.131124078E+01 0.132839819E+01 0.134578011E+01
 0.136338946E+01 0.138122923E+01 0.139930243E+01 0.141761212E+01 0.143616139E+01 0.145495337E+01 0.147399124E+01 0.149327822E+01
 0.151281757E+01 0.153261259E+01 0.155266662E+01 0.157298305E+01 0.159356533E+01 0.161441692E+01 0.163554135E+01 0.165694219E+01
 0.167862306E+01 0.170058762E+01 0.172283959E+01 0.174538271E+01 0.176822081E+01 0.179135775E+01 0.181479743E+01 0.183854381E+01
 0.186260091E+01 0.188697280E+01 0.191166359E+01 0.193667745E+01 0.196201862E+01 0.198769137E+01 0.201370005E+01 0.204004905E+01
 0.206674282E+01 0.209378588E+01 0.212118279E+01 0.214893818E+01 0.217705675E+01 0.220554325E+01 0.223440249E+01 0.226363935E+01
 0.229325877E+01 0.232326576E+01 0.235366539E+01 0.238446278E+01 0.241566316E+01 0.244727180E+01 0.247929402E+01 0.251173526E+01
 0.254460098E+01 0.257789675E+01 0.261162818E+01 0.264580099E+01 0.268042095E+01 0.271549390E+01 0.275102578E+01 0.278702258E+01
 0.282349040E+01 0.286043540E+01 0.289786382E+01 0.293578198E+01 0.297419630E+01 0.301311326E+01 0.305253945E+01 0.309248153E+01
 0.313294624E+01 0.317394042E+01 0.321547101E+01 0.325754502E+01 0.330016957E+01 0.334335185E+01 0.338709916E+01 0.343141891E+01
 0.347631857E+01 0.352180574E+01 0.356788810E+01 0.361457344E+01 0.366186965E+01 0.370978473E+01 0.375832677E+01 0.380750398E+01
 0.385732467E+01 0.390779725E+01 0.395893026E+01 0.401073233E+01 0.406321223E+01 0.411637883E+01 0.417024110E+01 0.422480815E+01
 0.428008920E+01 0.433609360E+01 0.439283081E+01 0.445031042E+01 0.450854214E+01 0.456753582E+01 0.462730142E+01 0.468784905E+01
 0.474918893E+01 0.481133144E+01 0.487428707E+01 0.493806647E+01 0.500268041E+01 0.506813982E+01 0.513445576E+01 0.520163943E+01
 0.526970220E+01 0.533865555E+01 0.540851115E+01 0.547928080E+01 0.555097646E+01 0.562361025E+01 0.569719445E+01 0.577174148E+01
 0.584726395E+01 0.592377463E+01 0.600128643E+01 0.607981247E+01 0.615936601E+01 0.623996050E+01 0.632160955E+01 0.640432697E+01
 0.648812674E+01 0.657302302E+01 0.665903015E+01 0.674616268E+01 0.683443532E+01 0.692386300E+01 0.701446083E+01 0.710624412E+01
 0.719922838E+01 0.729342933E+01 0.738886289E+01 0.748554518E+01 0.758349255E+01 0.768272154E+01 0.778324893E+01 0.788509171E+01
 0.798826709E+01 0.809279251E+01 0.819868562E+01 0.830596434E+01 0.841464678E+01 0.852475132E+01 0.863629656E+01 0.874930135E+01
 0.886378480E+01 0.897976625E+01 0.909726530E+01 0.921630181E+01 0.933689589E+01 0.945906794E+01 0.958283859E+01 0.970822876E+01
 0.983525964E+01 0.996395271E+01 0.100943297E+02 0.102264127E+02 0.103602239E+02 0.104957861E+02 0.106331221E+02 0.107722550E+02
 0.109132086E+02 0.110560065E+02 0.112006728E+02 0.113472322E+02 0.114957092E+02 0.116461290E+02 0.117985171E+02 0.119528991E+02
 0.121093012E+02 0.122677498E+02 0.124282717E+02 0.125908940E+02 0.127556441E+02 0.129225501E+02 0.130916399E+02 0.132629423E+02
 0.134364861E+02 0.136123008E+02 0.137904159E+02 0.139708617E+02 0.141536685E+02 0.143388674E+02 0.145264896E+02 0.147165668E+02
 0.149091311E+02 0.151042151E+02 0.153018518E+02 0.155020745E+02 0.157049171E+02 0.159104138E+02 0.161185995E+02 0.163295092E+02
 0.165431787E+02 0.167596440E+02 0.169789417E+02 0.172011089E+02 0.174261831E+02 0.176542024E+02 0.178852053E+02 0.181192308E+02
 0.183563186E+02 0.185965086E+02 0.188398414E+02 0.190863582E+02 0.193361007E+02 0.195891110E+02 0.198454319E+02 0.201051068E+02
 0.203681794E+02 0.206346944E+02 0.209046966E+02 0.211782318E+02 0.214553461E+02 0.217360865E+02 0.220205003E+02 0.223086356E+02
 0.226005412E+02 0.228962663E+02 0.231958609E+02 0.234993756E+02 0.238068618E+02 0.241183715E+02 0.244339572E+02 0.247536722E+02
 0.250775708E+02 0.254057074E+02 0.257381378E+02 0.260749179E+02 0.264161047E+02 0.267617559E+02 0.271119300E+02 0.274666860E+02
 0.278260839E+02 0.281901845E+02 0.285590494E+02 0.289327407E+02 0.293113218E+02 0.296948566E+02 0.300834098E+02 0.304770473E+02
 0.308758354E+02 0.312798416E+02 0.316891342E+02 0.321037823E+02 0.325238560E+02 0.329494264E+02 0.333805652E+02 0.338173455E+02
 0.342598410E+02 0.347081265E+02 0.351622777E+02 0.356223714E+02 0.360884854E+02 0.365606985E+02 0.370390904E+02 0.375237420E+02
 0.380147351E+02 0.385121529E+02 0.390160793E+02 0.395265995E+02 0.400437999E+02 0.405677677E+02 0.410985915E+02 0.416363611E+02
 0.421811674E+02 0.427331024E+02 0.432922594E+02 0.438587328E+02 0.444326185E+02 0.450140135E+02 0.456030159E+02 0.461997253E+02
 0.468042425E+02 0.474166699E+02 0.480371107E+02 0.486656699E+02 0.493024537E+02 0.499475698E+02 0.506011271E+02 0.512632362E+02
 0.519340088E+02 0.526135584E+02 0.533019999E+02 0.539994495E+02 0.547060251E+02 0.554218462E+02 0.561470337E+02 0.568817102E+02
 0.576259998E+02 0.583800284E+02 0.591439233E+02 0.599178137E+02 0.607018303E+02 0.614961057E+02 0.623007741E+02 0.631159715E+02
 0.639418356E+02 0.647785060E+02 0.656261242E+02 0.664848333E+02 0.673547786E+02 0.682361069E+02 0.691289673E+02 0.700335107E+02
 0.709498899E+02 0.718782598E+02 0.728187773E+02 0.737716013E+02 0.747368929E+02 0.757148153E+02 0.767055336E+02 0.777092153E+02
 0.787260301E+02 0.797561497E+02 0.807997484E+02 0.818570024E+02 0.829280904E+02 0.840131935E+02 0.851124950E+02 0.862261807E+02
 0.873544388E+02 0.884974600E+02 0.896554376E+02 0.908285671E+02 0.920170468E+02 0.932210777E+02 0.944408631E+02 0.956766093E+02
 0.969285250E+02 0.981968219E+02 0.994817143E+02 0.100783419E+03 0.102102157E+03 0.103438150E+03 0.104791625E+03 0.106162809E+03
 0.107551935E+03 0.108959238E+03 0.110384955E+03 0.111829328E+03 0.113292600E+03 0.114775019E+03 0.116276834E+03 0.117798301E+03
   </PP_R>
   <PP_RAB type="real"  size="1144" columns="8">
 0.539387247E-06 0.546445057E-06 0.553595218E-06 0.560838938E-06 0.568177441E-06 0.575611968E-06 0.583143774E-06 0.590774133E-06
 0.598504334E-06 0.606335684E-06 0.614269506E-06 0.622307141E-06 0.630449948E-06 0.638699301E-06 0.647056597E-06 0.655523247E-06
 0.664100682E-06 0.672790351E-06 0.681593723E-06 0.690512287E-06 0.699547549E-06 0.708701035E-06 0.717974295E-06 0.727368893E-06
 0.736886418E-06 0.746528479E-06 0.756296706E-06 0.766192748E-06 0.776218278E-06 0.786374991E-06 0.796664604E-06 0.807088854E-06
 0.817649505E-06 0.828348340E-06 0.839187169E-06 0.850167821E-06 0.861292155E-06 0.872562048E-06 0.883979407E-06 0.895546160E-06
 0.907264263E-06 0.919135695E-06 0.931162464E-06 0.943346601E-06 0.955690167E-06 0.968195246E-06 0.980863952E-06 0.993698427E-06
 0.100670084E-05 0.101987339E-05 0.103321829E-05 0.104673782E-05 0.106043424E-05 0.107430988E-05 0.108836709E-05 0.110260823E-05
 0.111703571E-05 0.113165197E-05 0.114645949E-05 0.116146076E-05 0.117665832E-05 0.119205474E-05 0.120765262E-05 0.122345459E-05
 0.123946333E-05 0.125568154E-05 0.127211197E-05 0.128875739E-05 0.130562061E-05 0.132270448E-05 0.134001189E-05 0.135754577E-05
 0.137530908E-05 0.139330481E-05 0.141153602E-05 0.143000578E-05 0.144871722E-05 0.146767349E-05 0.148687780E-05 0.150633340E-05
 0.152604358E-05 0.154601165E-05 0.156624101E-05 0.158673507E-05 0.160749728E-05 0.162853117E-05 0.164984029E-05 0.167142823E-05
 0.169329865E-05 0.171545523E-05 0.173790174E-05 0.176064195E-05 0.178367972E-05 0.180701893E-05 0.183066353E-05 0.185461752E-05
 0.187888495E-05 0.190346991E-05 0.192837656E-05 0.195360911E-05 0.197917183E-05 0.200506903E-05 0.203130509E-05 0.205788445E-05
 0.208481159E-05 0.211209108E-05 0.213972751E-05 0.216772556E-05 0.219608996E-05 0.222482551E-05 0.225393705E-05 0.228342952E-05
 0.231330789E-05 0.234357722E-05 0.237424262E-05 0.240530927E-05 0.243678242E-05 0.246866739E-05 0.250096958E-05 0.253369443E-05
 0.256684749E-05 0.260043435E-05 0.263446069E-05 0.266893225E-05 0.270385488E-05 0.273923446E-05 0.277507698E-05 0.281138850E-05
 0.284817514E-05 0.288544314E-05 0.292319878E-05 0.296144844E-05 0.300019860E-05 0.303945581E-05 0.307922668E-05 0.311951795E-05
 0.316033643E-05 0.320168902E-05 0.324358269E-05 0.328602454E-05 0.332902174E-05 0.337258154E-05 0.341671133E-05 0.346141854E-05
 0.350671074E-05 0.355259559E-05 0.359908083E-05 0.364617433E-05 0.369388403E-05 0.374221802E-05 0.379118444E-05 0.384079159E-05
 0.389104784E-05 0.394196168E-05 0.399354173E-05 0.404579669E-05 0.409873540E-05 0.415236681E-05 0.420669998E-05 0.426174409E-05
 0.431750845E-05 0.437400247E-05 0.443123572E-05 0.448921785E-05 0.454795867E-05 0.460746810E-05 0.466775621E-05 0.472883318E-05
 0.479070934E-05 0.485339514E-05 0.491690117E-05 0.498123817E-05 0.504641701E-05 0.511244870E-05 0.517934442E-05 0.524711545E-05
 0.531577326E-05 0.538532945E-05 0.545579577E-05 0.552718414E-05 0.559950661E-05 0.567277541E-05 0.574700292E-05 0.582220169E-05
 0.589838443E-05 0.597556401E-05 0.605375347E-05 0.613296603E-05 0.621321508E-05 0.629451417E-05 0.637687706E-05 0.646031765E-05
 0.654485005E-05 0.663048854E-05 0.671724760E-05 0.680514190E-05 0.689418628E-05 0.698439579E-05 0.707578568E-05 0.716837140E-05
 0.726216859E-05 0.735719310E-05 0.745346100E-05 0.755098855E-05 0.764979223E-05 0.774988875E-05 0.785129501E-05 0.795402817E-05
 0.805810557E-05 0.816354481E-05 0.827036371E-05 0.837858033E-05 0.848821294E-05 0.859928008E-05 0.871180052E-05 0.882579327E-05
 0.894127761E-05 0.905827304E-05 0.917679934E-05 0.929687654E-05 0.941852494E-05 0.954176509E-05 0.966661782E-05 0.979310423E-05
 0.992124570E-05 0.100510639E-04 0.101825807E-04 0.103158184E-04 0.104507996E-04 0.105875469E-04 0.107260835E-04 0.108664329E-04
 0.110086187E-04 0.111526651E-04 0.112985962E-04 0.114464368E-04 0.115962119E-04 0.117479468E-04 0.119016672E-04 0.120573989E-04
 0.122151684E-04 0.123750022E-04 0.125369275E-04 0.127009715E-04 0.128671620E-04 0.130355272E-04 0.132060953E-04 0.133788953E-04
 0.135539564E-04 0.137313081E-04 0.139109804E-04 0.140930038E-04 0.142774089E-04 0.144642269E-04 0.146534893E-04 0.148452283E-04
 0.150394762E-04 0.152362657E-04 0.154356302E-04 0.156376034E-04 0.158422194E-04 0.160495127E-04 0.162595184E-04 0.164722721E-04
 0.166878096E-04 0.169061674E-04 0.171273823E-04 0.173514918E-04 0.175785338E-04 0.178085466E-04 0.180415691E-04 0.182776406E-04
 0.185168011E-04 0.187590910E-04 0.190045512E-04 0.192532232E-04 0.195051491E-04 0.197603714E-04 0.200189332E-04 0.202808783E-04
 0.205462509E-04 0.208150959E-04 0.210874587E-04 0.213633853E-04 0.216429223E-04 0.219261171E-04 0.222130174E-04 0.225036718E-04
 0.227981294E-04 0.230964399E-04 0.233986537E-04 0.237048220E-04 0.240149965E-04 0.243292295E-04 0.246475742E-04 0.249700845E-04
 0.252968147E-04 0.256278202E-04 0.259631568E-04 0.263028813E-04 0.266470510E-04 0.269957241E-04 0.273489596E-04 0.277068171E-04
 0.280693571E-04 0.284366410E-04 0.288087306E-04 0.291856890E-04 0.295675799E-04 0.299544678E-04 0.303464180E-04 0.307434969E-04
 0.311457714E-04 0.315533097E-04 0.319661806E-04 0.323844538E-04 0.328082001E-04 0.332374911E-04 0.336723992E-04 0.341129981E-04
 0.345593622E-04 0.350115668E-04 0.354696885E-04 0.359338047E-04 0.364039938E-04 0.368803352E-04 0.373629095E-04 0.378517982E-04
 0.383470840E-04 0.388488505E-04 0.393571825E-04 0.398721661E-04 0.403938881E-04 0.409224367E-04 0.414579014E-04 0.420003725E-04
 0.425499418E-04 0.431067022E-04 0.436707477E-04 0.442421736E-04 0.448210766E-04 0.454075544E-04 0.460017062E-04 0.466036325E-04
 0.472134348E-04 0.478312163E-04 0.484570815E-04 0.490911359E-04 0.497334870E-04 0.503842430E-04 0.510435142E-04 0.517114118E-04
 0.523880487E-04 0.530735394E-04 0.537679996E-04 0.544715468E-04 0.551842997E-04 0.559063790E-04 0.566379065E-04 0.573790060E-04
 0.581298027E-04 0.588904235E-04 0.596609969E-04 0.604416531E-04 0.612325241E-04 0.620337436E-04 0.628454469E-04 0.636677712E-04
 0.645008555E-04 0.653448407E-04 0.661998693E-04 0.670660858E-04 0.679436366E-04 0.688326701E-04 0.697333364E-04 0.706457879E-04
 0.715701787E-04 0.725066649E-04 0.734554050E-04 0.744165593E-04 0.753902901E-04 0.763767620E-04 0.773761418E-04 0.783885984E-04
 0.794143028E-04 0.804534284E-04 0.815061508E-04 0.825726480E-04 0.836531002E-04 0.847476899E-04 0.858566022E-04 0.869800244E-04
 0.881181465E-04 0.892711608E-04 0.904392621E-04 0.916226478E-04 0.928215180E-04 0.940360753E-04 0.952665248E-04 0.965130747E-04
 0.977759354E-04 0.990553206E-04 0.100351446E-03 0.101664532E-03 0.102994799E-03 0.104342472E-03 0.105707779E-03 0.107090952E-03
 0.108492222E-03 0.109911829E-03 0.111350010E-03 0.112807011E-03 0.114283075E-03 0.115778454E-03 0.117293400E-03 0.118828169E-03
 0.120383019E-03 0.121958215E-03 0.123554022E-03 0.125170710E-03 0.126808552E-03 0.128467826E-03 0.130148810E-03 0.131851790E-03
 0.133577053E-03 0.135324891E-03 0.137095599E-03 0.138889477E-03 0.140706827E-03 0.142547958E-03 0.144413179E-03 0.146302806E-03
 0.148217159E-03 0.150156561E-03 0.152121339E-03 0.154111827E-03 0.156128360E-03 0.158171279E-03 0.160240929E-03 0.162337660E-03
 0.164461827E-03 0.166613788E-03 0.168793907E-03 0.171002553E-03 0.173240099E-03 0.175506923E-03 0.177803408E-03 0.180129942E-03
 0.182486918E-03 0.184874735E-03 0.187293796E-03 0.189744511E-03 0.192227293E-03 0.194742561E-03 0.197290742E-03 0.199872265E-03
 0.202487567E-03 0.205137090E-03 0.207821282E-03 0.210540596E-03 0.213295491E-03 0.216086435E-03 0.218913897E-03 0.221778356E-03
 0.224680297E-03 0.227620209E-03 0.230598589E-03 0.233615941E-03 0.236672774E-03 0.239769606E-03 0.242906960E-03 0.246085365E-03
 0.249305359E-03 0.252567487E-03 0.255872299E-03 0.259220354E-03 0.262612218E-03 0.266048464E-03 0.269529673E-03 0.273056433E-03
 0.276629340E-03 0.280248998E-03 0.283916019E-03 0.287631023E-03 0.291394637E-03 0.295207497E-03 0.299070248E-03 0.302983542E-03
 0.306948042E-03 0.310964416E-03 0.315033344E-03 0.319155514E-03 0.323331621E-03 0.327562373E-03 0.331848483E-03 0.336190676E-03
 0.340589687E-03 0.345046258E-03 0.349561142E-03 0.354135103E-03 0.358768914E-03 0.363463358E-03 0.368219228E-03 0.373037327E-03
 0.377918471E-03 0.382863484E-03 0.387873202E-03 0.392948472E-03 0.398090150E-03 0.403299107E-03 0.408576222E-03 0.413922388E-03
 0.419338508E-03 0.424825496E-03 0.430384282E-03 0.436015803E-03 0.441721012E-03 0.447500873E-03 0.453356362E-03 0.459288470E-03
 0.465298199E-03 0.471386564E-03 0.477554595E-03 0.483803333E-03 0.490133836E-03 0.496547172E-03 0.503044426E-03 0.509626695E-03
 0.516295093E-03 0.523050746E-03 0.529894796E-03 0.536828399E-03 0.543852727E-03 0.550968968E-03 0.558178324E-03 0.565482013E-03
 0.572881270E-03 0.580377346E-03 0.587971506E-03 0.595665035E-03 0.603459233E-03 0.611355417E-03 0.619354922E-03 0.627459099E-03
 0.635669318E-03 0.643986967E-03 0.652413451E-03 0.660950194E-03 0.669598640E-03 0.678360249E-03 0.687236503E-03 0.696228902E-03